8
charge=0, multiplicity=1, basis=def2-QZVPPD, comment=['step_size = 0.001'], AUX_BASIS_CORR=rimp2-def2-QZVPPD, SCF_ALGORITHM=GDM, xc_grid=000099000590, mem_total=3750, num_basis=324, num_pairs=48273, num_threads=1
N  -0.0593096970  1.6405908442  0.0000000000
H  0.3235888215  2.1130254981  -0.8100056499
H  0.3235888215  2.1130254981  0.8100056499
H  0.3186800753  0.6975171608  0.0000000000
N  0.0345320581  -1.5879608744  0.0000000000
H  -0.9353247005  -1.2929355779  0.0000000000
H  0.1568680912  -2.1809459203  -0.8120216437
H  0.1568680912  -2.1809459203  0.8120216437