8
charge=0, multiplicity=1, basis=def2-QZVPPD, comment=['step_size = 0.001'], AUX_BASIS_CORR=rimp2-def2-QZVPPD, SCF_ALGORITHM=GDM, xc_grid=000099000590, mem_total=3750, num_basis=324, num_pairs=48371, num_threads=1
N  -0.0592713919  1.6406206078  0.0000000000
H  0.3233527957  2.1124350340  -0.8098696095
H  0.3233527957  2.1124350340  0.8098696095
H  0.3186256286  0.6982799930  0.0000000000
N  0.0344928167  -1.5879329315  0.0000000000
H  -0.9352363263  -1.2927668098  0.0000000000
H  0.1570936588  -2.1812221535  -0.8117067911
H  0.1570936588  -2.1812221535  0.8117067911