6
charge=0, multiplicity=1, basis=def2-QZVPPD, comment=['step_size = 0.01'], AUX_BASIS_CORR=rimp2-def2-QZVPPD, SCF_ALGORITHM=GDM, xc_grid=000099000590, mem_total=3750, num_basis=390, num_pairs=68687, num_threads=1
C  1.7295055672  0.2783065275  0.0000000000
O  0.9781770294  1.1683002274  0.0000000000
O  2.4832317859  -0.6055241208  0.0000000000
C  -1.7295055672  -0.2783065275  0.0000000000
O  -0.9781770294  -1.1683002274  0.0000000000
O  -2.4832317859  0.6055241208  0.0000000000