7
charge=0, multiplicity=1, basis=def2-QZVPPD, comment=['step_size = 0.01'], AUX_BASIS_CORR=rimp2-def2-QZVPPD, SCF_ALGORITHM=GDM, xc_grid=000099000590, mem_total=3750, num_basis=321, num_pairs=47459, num_threads=1
C  -0.0002356186  2.2777448102  0.0000000000
H  0.0533367438  3.3646211791  0.0000000000
H  0.4939377354  1.8898804332  0.8888432607
H  -1.0431084777  1.9661344957  0.0000000000
H  0.4939377354  1.8898804332  -0.8888432607
N  0.0001692005  -1.3038117335  0.5502490019
N  0.0001692005  -1.3038117335  -0.5502490019