6
charge=0, multiplicity=1, basis=def2-QZVPPD, comment=['step_size = 0.001'], AUX_BASIS_CORR=rimp2-def2-QZVPPD, SCF_ALGORITHM=GDM, xc_grid=000099000590, mem_total=3750, num_basis=390, num_pairs=68687, num_threads=1
C  1.7285258421  0.2783756734  0.0000000000
O  0.9774619050  1.1687641835  0.0000000000
O  2.4819675512  -0.6058536575  0.0000000000
C  -1.7285258421  -0.2783756734  0.0000000000
O  -0.9774619050  -1.1687641835  0.0000000000
O  -2.4819675512  0.6058536575  0.0000000000