7
charge=0, multiplicity=1, basis=def2-QZVPPD, comment=['step_size = 0.003'], AUX_BASIS_CORR=rimp2-def2-QZVPPD, SCF_ALGORITHM=GDM, xc_grid=000099000590, mem_total=3750, num_basis=294, num_pairs=41178, num_threads=1
O  -1.4768627298  -0.0578433419  0.0000000000
H  -1.8520365772  0.8235043259  0.0000000000
H  -0.5159544966  0.0789988933  0.0000000000
N  1.4611824926  0.0140874926  0.0000000000
H  1.6546475480  -0.9805707226  0.0000000000
H  1.9250227272  0.4001733881  0.8134109442
H  1.9250227272  0.4001733881  -0.8134109442