4
charge=0, multiplicity=1, basis=def2-QZVPPD, comment=['step_size = 0.001'], AUX_BASIS_CORR=rimp2-def2-QZVPPD, SCF_ALGORITHM=GDM, xc_grid=000099000590, mem_total=3750, num_basis=211, num_pairs=20362, num_threads=1
H  3.0125207487  -0.7834029721  0.0000000000
O  2.5633984968  0.0629916138  0.0000000000
H  1.6303531237  -0.1619311095  0.0000000000
Ar  -1.1430885873  -0.0013716404  0.0000000000