5
charge=0, multiplicity=1, basis=def2-QZVPPD, comment=['step_size = 0.01'], AUX_BASIS_CORR=rimp2-def2-QZVPPD, SCF_ALGORITHM=GDM, xc_grid=000099000590, mem_total=3750, num_basis=258, num_pairs=30908, num_threads=1
F  -0.0000000000  0.0005440642  -1.9575818500
H  0.0000000000  -0.0011817796  -1.0282360300
N  0.0000000000  -0.0020149366  0.8200351300
C  -0.0000000000  0.0012365151  1.9732845300
H  -0.0000000000  0.0041989499  3.0409886300