8
charge=0, multiplicity=1, basis=def2-QZVPPD, comment=['step_size = 0.01'], AUX_BASIS_CORR=rimp2-def2-QZVPPD, SCF_ALGORITHM=GDM, xc_grid=000099000590, mem_total=3750, num_basis=324, num_pairs=48273, num_threads=1
N  -0.0592442335  1.6414843010  0.0000000000
H  0.3254229649  2.1120174978  -0.8102651616
H  0.3254229649  2.1120174978  0.8102651616
H  0.3152452324  0.6969759766  0.0000000000
N  0.0341109237  -1.5882537237  0.0000000000
H  -0.9374620197  -1.2989565190  0.0000000000
H  0.1602909429  -2.1808293815  -0.8117531203
H  0.1602909429  -2.1808293815  0.8117531203