6
charge=0, multiplicity=1, basis=def2-QZVPPD, comment=['step_size = 0.001'], AUX_BASIS_CORR=rimp2-def2-QZVPPD, SCF_ALGORITHM=GDM, xc_grid=000099000590, mem_total=3750, num_basis=327, num_pairs=50678, num_threads=1
H  0.0000000000  -0.7604253079  -2.5307252514
O  0.0000000000  -0.0000011874  -1.9463955600
H  0.0000000000  0.7604327521  -2.5307142486
O  0.0000000000  -1.1629437760  0.8288912961
C  0.0000000000  0.0002464154  0.8097848000
O  0.0000000000  1.1627596240  0.8288892839