3
charge=0, multiplicity=1, basis=def2-QZVPPD, comment=['step_size = 0.001'], AUX_BASIS_CORR=rimp2-def2-QZVPPD, SCF_ALGORITHM=GDM, xc_grid=000099000590, mem_total=3750, num_basis=208, num_pairs=20016, num_threads=1
C  -2.1279245321  0.6517066870  0.0000000000
O  -2.2235417465  -0.4764851584  0.0000000000
Ar  1.5289492025  -0.0049832115  0.0000000000