5
charge=0, multiplicity=1, basis=def2-QZVPPD, comment=['step_size = 0.01'], AUX_BASIS_CORR=rimp2-def2-QZVPPD, SCF_ALGORITHM=GDM, xc_grid=000099000590, mem_total=3750, num_basis=241, num_pairs=27103, num_threads=1
N  0.0655804900  -2.4982868400  0.0003474506
H  -0.3760320621  -2.0875473340  0.8141073790
H  -0.3753025179  -2.0776247460  -0.8087202610
H  -0.1941450500  -3.4772879100  -0.0057478257
Ar  0.0008645500  1.0681534500  -0.0001126521