8
charge=0, multiplicity=1, basis=def2-QZVPPD, comment=['step_size = 0.01'], AUX_BASIS_CORR=rimp2-def2-QZVPPD, SCF_ALGORITHM=GDM, xc_grid=000099000590, mem_total=3750, num_basis=327, num_pairs=49748, num_threads=1
O  -1.6552387847  0.0621869606  0.0000000000
H  -2.0695915043  -0.8025199031  0.0000000000
H  -0.7137573042  -0.1230961433  0.0000000000
C  1.8252583185  -0.0039331683  0.0000000000
H  1.4107573848  0.4654102861  0.8910506763
H  1.4107573848  0.4654102861  -0.8910506763
H  2.9056986004  0.1229258242  0.0000000000
H  1.5929379385  -1.0682509519  0.0000000000