9
charge=0, multiplicity=1, basis=def2-QZVPPD, comment=['step_size = 0.003'], AUX_BASIS_CORR=rimp2-def2-QZVPPD, SCF_ALGORITHM=GDM, xc_grid=000099000590, mem_total=3750, num_basis=393, num_pairs=70355, num_threads=1
O  -0.7746406297  0.6532739710  0.0000000000
H  0.1400971411  0.3496056605  0.0000000000
C  -1.6135640606  -0.4879915767  0.0000000000
H  -2.6432375936  -0.1335360695  0.0000000000
H  -1.4621456516  -1.1085011149  -0.8889556794
H  -1.4621456516  -1.1085011149  0.8889556794
O  2.0135326435  -0.1813185344  0.0000000000
H  2.4888736417  0.1605447517  -0.7603506295
H  2.4888736417  0.1605447517  0.7603506295