4
charge=0, multiplicity=1, basis=def2-QZVPPD, comment=['step_size = 0.001'], AUX_BASIS_CORR=rimp2-def2-QZVPPD, SCF_ALGORITHM=GDM, xc_grid=000099000590, mem_total=3750, num_basis=198, num_pairs=19055, num_threads=1
F  1.4000908400  -0.0096787607  0.0000000000
H  0.4858605433  0.1185792395  0.0000000000
F  -1.3362825388  0.0461164030  0.0000000000
H  -1.6887041349  -0.8054613645  0.0000000000