9
charge=0, multiplicity=1, basis=def2-QZVPPD, comment=['step_size = 0.001'], AUX_BASIS_CORR=rimp2-def2-QZVPPD, SCF_ALGORITHM=GDM, xc_grid=000099000590, mem_total=3750, num_basis=393, num_pairs=70355, num_threads=1
O  -0.7744659914  0.6531048018  0.0000000000
H  0.1402339692  0.3493858012  0.0000000000
C  -1.6137163493  -0.4879117347  0.0000000000
H  -2.6423808827  -0.1335561374  0.0000000000
H  -1.4623717768  -1.1086139542  -0.8891344839
H  -1.4623717768  -1.1086139542  0.8891344839
O  2.0133203460  -0.1810094685  0.0000000000
H  2.4898084738  0.1591920903  -0.7603663328
H  2.4898084738  0.1591920903  0.7603663328