6
charge=0, multiplicity=1, basis=def2-QZVPPD, comment=['step_size = 0.001'], AUX_BASIS_CORR=rimp2-def2-QZVPPD, SCF_ALGORITHM=GDM, xc_grid=000099000590, mem_total=3750, num_basis=261, num_pairs=33434, num_threads=1
F  0.0000006101  1.2729567300  0.0000000000
H  -0.0000340626  0.3236431200  -0.0000000000
N  -0.0000624949  -1.3728612200  -0.0000000000
H  0.9405050289  -1.7485911357  0.0000000000
H  -0.4698071069  -1.7482050974  0.8150010370
H  -0.4698071069  -1.7482050974  -0.8150010370