6
charge=0, multiplicity=1, basis=def2-QZVPPD, comment=['step_size = {step_size}'], AUX_BASIS_CORR=rimp2-def2-QZVPPD, SCF_ALGORITHM=GDM, xc_grid=000099000590, mem_total=3750, num_basis=291, num_pairs=41160, num_threads=1
F  -0.0000000100  1.7596153300  0.0000000000
H  0.0000003400  0.8341588100  0.0000000000
C  0.0000000500  -1.3168690700  -0.6039940900
C  0.0000000500  -1.3168690700  0.6039940900
H  -0.0000006300  -1.3225063800  1.6688107900
H  -0.0000006300  -1.3225063800  -1.6688107900