7
charge=0, multiplicity=1, basis=def2-QZVPPD, comment=['step_size = 0.01'], AUX_BASIS_CORR=rimp2-def2-QZVPPD, SCF_ALGORITHM=GDM, xc_grid=000099000590, mem_total=3750, num_basis=321, num_pairs=47459, num_threads=1
C  0.0003614386  2.2786707298  0.0000000000
H  0.0422122562  3.3660616409  0.0000000000
H  0.4986836846  1.8961503468  0.8888447993
H  -1.0390922823  1.9558500243  0.0000000000
H  0.4986836846  1.8961503468  -0.8888447993
N  -0.0001724005  -1.3043414665  0.5502492381
N  -0.0001724005  -1.3043414665  -0.5502492381