8
charge=0, multiplicity=1, basis=def2-QZVPPD, comment=['step_size = 0.001'], AUX_BASIS_CORR=rimp2-def2-QZVPPD, SCF_ALGORITHM=GDM, xc_grid=000099000590, mem_total=3750, num_basis=327, num_pairs=49748, num_threads=1
O  -1.6538511162  0.0622781782  0.0000000000
H  -2.0725087031  -0.8003394607  0.0000000000
H  -0.7133158252  -0.1276531940  0.0000000000
C  1.8241212146  -0.0038062908  0.0000000000
H  1.4082427914  0.4643818919  0.8910145556
H  1.4082427914  0.4643818919  -0.8910145556
H  2.9043460360  0.1246350670  0.0000000000
H  1.5933114052  -1.0684851900  0.0000000000