5
charge=0, multiplicity=1, basis=def2-QZVPPD, comment=['step_size = 0.001'], AUX_BASIS_CORR=rimp2-def2-QZVPPD, SCF_ALGORITHM=GDM, xc_grid=000099000590, mem_total=3750, num_basis=231, num_pairs=26194, num_threads=1
F  -0.0073275439  1.2994318552  0.0000000000
H  0.0407399719  0.3677826975  0.0000000000
O  0.0530865337  -1.3468784831  0.0000000000
H  -0.3725654984  -1.7436482599  0.7630210473
H  -0.3725654984  -1.7436482599  -0.7630210473