8
charge=0, multiplicity=1, basis=def2-QZVPPD, comment=['step_size = 0.001'], AUX_BASIS_CORR=rimp2-def2-QZVPPD, SCF_ALGORITHM=GDM, xc_grid=000099000590, mem_total=3750, num_basis=384, num_pairs=64034, num_threads=1
H  0.0000000000  1.6670745948  2.1852605116
C  0.0000000000  0.6036842311  2.1826923822
C  0.0000000000  -0.6036842311  2.1826923822
H  0.0000000000  -1.6670745948  2.1852605116
H  0.0000000000  0.0000000000  -0.5131343379
C  0.0000000000  0.0000000000  -1.5792116193
C  0.0000000000  0.0000000000  -2.7867597743
H  0.0000000000  0.0000000000  -3.8504016724