7
charge=0, multiplicity=1, basis=def2-QZVPPD, comment=['step_size = 0.003'], AUX_BASIS_CORR=rimp2-def2-QZVPPD, SCF_ALGORITHM=GDM, xc_grid=000099000590, mem_total=3750, num_basis=294, num_pairs=41178, num_threads=1
O  -1.4769593600  -0.0578987100  0.0000893740
H  -1.8502388700  0.8242610200  0.0000709920
H  -0.5158230000  0.0773619400  -0.0027927061
N  1.4611711700  0.0142682700  0.0001292126
H  1.6535690700  -0.9806040200  -0.0001767236
H  1.9260195100  0.3997110766  0.8132622212
H  1.9248661300  0.3999162034  -0.8135775388