6
charge=0, multiplicity=1, basis=def2-QZVPPD, comment=['step_size = 0.003'], AUX_BASIS_CORR=rimp2-def2-QZVPPD, SCF_ALGORITHM=GDM, xc_grid=000099000590, mem_total=3750, num_basis=291, num_pairs=41160, num_threads=1
F  -0.0001090304  1.7596153299  0.0000000000
H  0.0029393425  0.8341588111  0.0000000000
C  -0.0000230613  -1.3168690700  -0.6039940900
C  -0.0000230613  -1.3168690700  0.6039940900
H  -0.0001673853  -1.3225063798  1.6688107899
H  -0.0001673853  -1.3225063798  -1.6688107899