10
charge=0, multiplicity=1, basis=def2-QZVPPD, comment=['step_size = 0.001'], AUX_BASIS_CORR=rimp2-def2-QZVPPD, SCF_ALGORITHM=GDM, xc_grid=000099000590, mem_total=3750, num_basis=390, num_pairs=69840, num_threads=1
C  1.8243775871  0.0000571894  -0.0000581057
H  1.4601735545  0.8864677058  0.5157776859
H  1.4600605910  0.0027824485  -1.0255814139
H  1.4603490626  -0.8896533291  0.5102453981
H  2.9126976333  -0.0002780116  0.0002503939
C  -1.8243775871  -0.0000571894  0.0000581057
H  -2.9126976333  0.0002780116  -0.0002503939
H  -1.4600605910  -0.0027824485  1.0255814139
H  -1.4601735545  -0.8864677058  -0.5157776859
H  -1.4603490626  0.8896533291  -0.5102453981