7
charge=0, multiplicity=1, basis=def2-QZVPPD, comment=['step_size = 0.001'], AUX_BASIS_CORR=rimp2-def2-QZVPPD, SCF_ALGORITHM=GDM, xc_grid=000099000590, mem_total=3750, num_basis=321, num_pairs=47459, num_threads=1
C  0.0000629100  2.2782077700  0.0000876111
H  0.0477745000  3.3653414100  0.0000192868
H  0.4959974435  1.8932584593  0.8883029013
H  -1.0411003800  1.9609922600  0.0000198151
H  0.4966239765  1.8927723207  -0.8893851587
N  -0.0000015927  -1.3040766321  0.5502491195
N  -0.0000016073  -1.3040765679  -0.5502491205