8
charge=0, multiplicity=1, basis=def2-QZVPPD, comment=['step_size = 0.001'], AUX_BASIS_CORR=rimp2-def2-QZVPPD, SCF_ALGORITHM=GDM, xc_grid=000099000590, mem_total=3750, num_basis=324, num_pairs=48273, num_threads=1
N  -0.0593080277  1.6405903548  0.0000000000
H  0.3235876320  2.1130355599  -0.8099990954
H  0.3235876320  2.1130355599  0.8099990954
H  0.3186479760  0.6975066429  0.0000000000
N  0.0344622534  -1.5879034244  0.0000000000
H  -0.9352557097  -1.2925388429  0.0000000000
H  0.1573241840  -2.1815448057  -0.8114859626
H  0.1573241840  -2.1815448057  0.8114859626