5
charge=0, multiplicity=1, basis=def2-QZVPPD, comment=['step_size = 0.001'], AUX_BASIS_CORR=rimp2-def2-QZVPPD, SCF_ALGORITHM=GDM, xc_grid=000099000590, mem_total=3750, num_basis=271, num_pairs=33513, num_threads=1
C  -2.0999999997  -0.5756411844  0.0000000000
C  -2.7328036679  0.4522439836  0.0000000000
H  -1.5424966770  -1.4806380970  0.0000000000
H  -3.2897908557  1.3575313457  0.0000000000
Ar  1.5730729421  0.0401586715  0.0000000000