8
charge=0, multiplicity=1, basis=def2-QZVPPD, comment=['step_size = 0.001'], AUX_BASIS_CORR=rimp2-def2-QZVPPD, SCF_ALGORITHM=GDM, xc_grid=000099000590, mem_total=3750, num_basis=327, num_pairs=49748, num_threads=1
O  -1.6538510800  0.0622771200  -0.0000006587
H  -2.0725215900  -0.8003331400  0.0000015469
H  -0.7133127000  -0.1276480500  0.0000213746
C  1.8240301200  -0.0038760600  -0.0000002211
H  1.4082979458  0.4644027988  0.8910319408
H  1.4090518142  0.4650673012  -0.8910354592
H  2.9042414700  0.1249006600  -0.0004965158
H  1.5936456300  -1.0686210400  0.0004901983