8
charge=0, multiplicity=1, basis=def2-QZVPPD, comment=['step_size = 0.01'], AUX_BASIS_CORR=rimp2-def2-QZVPPD, SCF_ALGORITHM=GDM, xc_grid=000099000590, mem_total=3750, num_basis=324, num_pairs=48371, num_threads=1
N  -0.0593723665  1.6397857390  0.0000000000
H  0.3215726751  2.1133169222  -0.8102756584
H  0.3215726751  2.1133169222  0.8102756584
H  0.3224490476  0.6982559034  0.0000000000
N  0.0348806163  -1.5876073163  0.0000000000
H  -0.9331245203  -1.2865305410  0.0000000000
H  0.1539135371  -2.1816722585  -0.8117435797
H  0.1539135371  -2.1816722585  0.8117435797