5
charge=0, multiplicity=1, basis=def2-QZVPPD, comment=['step_size = 0.001'], AUX_BASIS_CORR=rimp2-def2-QZVPPD, SCF_ALGORITHM=GDM, xc_grid=000099000590, mem_total=3750, num_basis=241, num_pairs=27103, num_threads=1
N  0.0655804900  -2.4982868400  -0.0000648558
H  -0.3758297620  -2.0829884439  0.8114955427
H  -0.3755048180  -2.0821836361  -0.8113320973
H  -0.1941450500  -3.4772879100  0.0007374163
Ar  0.0008645500  1.0681534500  0.0000000068