8
charge=0, multiplicity=1, basis=def2-QZVPPD, comment=['step_size = {step_size}'], AUX_BASIS_CORR=rimp2-def2-QZVPPD, SCF_ALGORITHM=GDM, xc_grid=000099000590, mem_total=3750, num_basis=324, num_pairs=48273, num_threads=1
N  -0.0593083000  1.6406350200  0.0000000000
H  0.3234978200  2.1126672100  -0.8102704100
H  0.3234978200  2.1126672100  0.8102704100
H  0.3188471400  0.6976159400  0.0000000000
N  0.0344957700  -1.5879305200  0.0000000000
H  -0.9352932700  -1.2927435300  0.0000000000
H  0.1571022400  -2.1812508200  -0.8117483500
H  0.1571022400  -2.1812508200  0.8117483500