9
charge=0, multiplicity=1, basis=def2-QZVPPD, comment=['step_size = 0.001'], AUX_BASIS_CORR=rimp2-def2-QZVPPD, SCF_ALGORITHM=GDM, xc_grid=000099000590, mem_total=3750, num_basis=393, num_pairs=70355, num_threads=1
O  -0.7744676402  0.6530710679  0.0000000000
H  0.1401018491  0.3489033510  0.0000000000
C  -1.6136728779  -0.4878522311  0.0000000000
H  -2.6434623936  -0.1337357954  0.0000000000
H  -1.4620242248  -1.1083850115  -0.8889082449
H  -1.4620242248  -1.1083850115  0.8889082449
O  2.0133210972  -0.1810057124  0.0000000000
H  2.4898160573  0.1591778367  -0.7603690736
H  2.4898160573  0.1591778367  0.7603690736