5
charge=0, multiplicity=1, basis=def2-QZVPPD, comment=['step_size = 0.003'], AUX_BASIS_CORR=rimp2-def2-QZVPPD, SCF_ALGORITHM=GDM, xc_grid=000099000590, mem_total=3750, num_basis=231, num_pairs=26194, num_threads=1
F  -0.0072416174  1.2994951912  0.0000000000
H  0.0379303695  0.3666928810  0.0000000000
O  0.0532067128  -1.3469124025  0.0000000000
H  -0.3729242577  -1.7434311583  0.7631368603
H  -0.3729242577  -1.7434311583  -0.7631368603