4
charge=0, multiplicity=1, basis=def2-QZVPPD, comment=['step_size = 0.001'], AUX_BASIS_CORR=rimp2-def2-QZVPPD, SCF_ALGORITHM=GDM, xc_grid=000099000590, mem_total=3750, num_basis=211, num_pairs=20337, num_threads=1
H  3.0132018097  -0.7845897384  0.0000000000
O  2.5633570275  0.0630637959  0.0000000000
H  1.6303301183  -0.1618898733  0.0000000000
Ar  -1.1430885849  -0.0013716417  0.0000000000