6
charge=0, multiplicity=1, basis=def2-QZVPPD, comment=['step_size = 0.003'], AUX_BASIS_CORR=rimp2-def2-QZVPPD, SCF_ALGORITHM=GDM, xc_grid=000099000590, mem_total=3750, num_basis=261, num_pairs=33434, num_threads=1
F  -0.0000000001  1.2734088904  0.0000000000
H  0.0000002109  0.3241444788  0.0000000000
N  0.0000000202  -1.3733890934  0.0000000000
H  0.9406331170  -1.7488978021  0.0000000000
H  -0.4703168396  -1.7488970286  0.8146123489
H  -0.4703168396  -1.7488970286  -0.8146123489