5
charge=0, multiplicity=1, basis=def2-QZVPPD, comment=['step_size = 0.001'], AUX_BASIS_CORR=rimp2-def2-QZVPPD, SCF_ALGORITHM=GDM, xc_grid=000099000590, mem_total=3750, num_basis=271, num_pairs=33513, num_threads=1
C  -2.1000760843  -0.5755176278  0.0000000000
C  -2.7327871291  0.4522171181  0.0000000000
H  -1.5418086363  -1.4817547342  0.0000000000
H  -3.2897696470  1.3574968078  0.0000000000
Ar  1.5730729358  0.0401586687  0.0000000000