8
charge=0, multiplicity=1, basis=def2-QZVPPD, comment=['step_size = 0.001'], AUX_BASIS_CORR=rimp2-def2-QZVPPD, SCF_ALGORITHM=GDM, xc_grid=000099000590, mem_total=3750, num_basis=324, num_pairs=48273, num_threads=1
N  -0.0592400974  1.6406366567  0.0000000000
H  0.3231880639  2.1127219646  -0.8103778993
H  0.3231880639  2.1127219646  0.8103778993
H  0.3184948879  0.6974799813  0.0000000000
N  0.0345491482  -1.5878695161  0.0000000000
H  -0.9354069264  -1.2931089503  0.0000000000
H  0.1568003073  -2.1814900600  -0.8116269917
H  0.1568003073  -2.1814900600  0.8116269917