8
charge=0, multiplicity=1, basis=def2-QZVPPD, comment=['step_size = 0.001'], AUX_BASIS_CORR=rimp2-def2-QZVPPD, SCF_ALGORITHM=GDM, xc_grid=000099000590, mem_total=3750, num_basis=327, num_pairs=49748, num_threads=1
O  -1.6539108283  0.0622457770  0.0000000000
H  -2.0722134075  -0.7997037738  0.0000000000
H  -0.7126712128  -0.1277799064  0.0000000000
C  1.8240300343  -0.0038760861  0.0000000000
H  1.4086744484  0.4647338297  0.8910318884
H  1.4086744484  0.4647338297  -0.8910318884
H  2.9042426541  0.1249008914  0.0000000000
H  1.5936449096  -1.0686185937  0.0000000000