5
charge=0, multiplicity=1, basis=def2-QZVPPD, comment=['step_size = 0.001'], AUX_BASIS_CORR=rimp2-def2-QZVPPD, SCF_ALGORITHM=GDM, xc_grid=000099000590, mem_total=3750, num_basis=231, num_pairs=26194, num_threads=1
F  -0.0073302000  1.2994823700  0.0000000068
H  0.0407933900  0.3668474100  0.0000016162
O  0.0530957100  -1.3468700500  0.0000677454
H  -0.3723396276  -1.7434416220  0.7626265542
H  -0.3729403524  -1.7440056980  -0.7637034658