6
charge=0, multiplicity=1, basis=def2-QZVPPD, comment=['step_size = 0.001'], AUX_BASIS_CORR=rimp2-def2-QZVPPD, SCF_ALGORITHM=GDM, xc_grid=000099000590, mem_total=3750, num_basis=274, num_pairs=35091, num_threads=1
C  0.0000001122  2.6306279800  0.0000000000
H  -0.5125967228  2.2674594676  0.8887023522
H  -0.5125967228  2.2674594676  -0.8887023522
H  -0.0004929807  3.7188848226  -0.0000000000
H  1.0256853329  2.2667471523  0.0000000000
Ar  -0.0000000054  -1.0552526300  0.0000000000