6
charge=0, multiplicity=1, basis=def2-QZVPPD, comment=['step_size = 0.001'], AUX_BASIS_CORR=rimp2-def2-QZVPPD, SCF_ALGORITHM=GDM, xc_grid=000099000590, mem_total=3750, num_basis=261, num_pairs=33434, num_threads=1
F  0.0000000000  1.2729602932  0.0000000000
H  0.0000002099  0.3236364481  0.0000000000
N  0.0000000200  -1.3729707723  0.0000000000
H  0.9408390379  -1.7478470699  0.0000000000
H  -0.4704197986  -1.7478462996  0.8147906808
H  -0.4704197986  -1.7478462996  -0.8147906808