6
charge=0, multiplicity=1, basis=def2-QZVPPD, comment=['step_size = {step_size}'], AUX_BASIS_CORR=rimp2-def2-QZVPPD, SCF_ALGORITHM=GDM, xc_grid=000099000590, mem_total=3750, num_basis=274, num_pairs=35091, num_threads=1
C  0.0000000000  2.6306279800  0.0000000000
H  -0.5129284700  2.2672246700  0.8884149700
H  -0.5129284700  2.2672246700  -0.8884149700
H  0.0000056200  3.7188848200  0.0000000000
H  1.0258513500  2.2672167500  0.0000000000
Ar  0.0000000000  -1.0552526300  0.0000000000