6
charge=0, multiplicity=1, basis=def2-QZVPPD, comment=['step_size = 0.001'], AUX_BASIS_CORR=rimp2-def2-QZVPPD, SCF_ALGORITHM=GDM, xc_grid=000099000590, mem_total=3750, num_basis=261, num_pairs=33434, num_threads=1
F  0.0000000000  1.2729462598  0.0000000000
H  0.0000002100  0.3238315544  0.0000000000
N  0.0000000201  -1.3728236114  0.0000000000
H  0.9411762944  -1.7485054933  0.0000000000
H  -0.4705884276  -1.7485047231  0.8150827543
H  -0.4705884276  -1.7485047231  -0.8150827543