8
charge=0, multiplicity=1, basis=def2-QZVPPD, comment=['step_size = 0.003'], AUX_BASIS_CORR=rimp2-def2-QZVPPD, SCF_ALGORITHM=GDM, xc_grid=000099000590, mem_total=3750, num_basis=384, num_pairs=64034, num_threads=1
H  0.0000000000  1.6677139433  2.1832348906
C  0.0000000000  0.6035964919  2.1828649819
C  0.0000000000  -0.6035964919  2.1828649819
H  0.0000000000  -1.6677139433  2.1832348906
H  0.0000000000  0.0000000000  -0.5131838198
C  0.0000000000  0.0000000000  -1.5792074177
C  0.0000000000  0.0000000000  -2.7867687042
H  0.0000000000  0.0000000000  -3.8503548783