8
charge=0, multiplicity=1, basis=def2-QZVPPD, comment=['step_size = 0.001'], AUX_BASIS_CORR=rimp2-def2-QZVPPD, SCF_ALGORITHM=GDM, xc_grid=000099000590, mem_total=3750, num_basis=327, num_pairs=49748, num_threads=1
O  -1.6537913317  0.0623084630  0.0000000000
H  -2.0728297725  -0.8009625062  0.0000000000
H  -0.7139541872  -0.1275161936  0.0000000000
C  1.8240302057  -0.0038760339  0.0000000000
H  1.4086753116  0.4647362703  0.8910355116
H  1.4086753116  0.4647362703  -0.8910355116
H  2.9042402859  0.1249004286  0.0000000000
H  1.5936463504  -1.0686234863  0.0000000000