8
charge=0, multiplicity=1, basis=def2-QZVPPD, comment=['step_size = 0.001'], AUX_BASIS_CORR=rimp2-def2-QZVPPD, SCF_ALGORITHM=GDM, xc_grid=000099000590, mem_total=3750, num_basis=384, num_pairs=64034, num_threads=1
H  0.0000000000  1.6677553258  2.1852623480
C  0.0000000000  0.6035893695  2.1826922302
C  0.0000000000  -0.6035893695  2.1826922302
H  0.0000000000  -1.6677553258  2.1852623480
H  0.0000000000  0.0000000000  -0.5126607901
C  0.0000000000  0.0000000000  -1.5792835786
C  0.0000000000  0.0000000000  -2.7866704727
H  0.0000000000  0.0000000000  -3.8510817646