7
charge=0, multiplicity=1, basis=def2-QZVPPD, comment=['step_size = 0.001'], AUX_BASIS_CORR=rimp2-def2-QZVPPD, SCF_ALGORITHM=GDM, xc_grid=000099000590, mem_total=3750, num_basis=337, num_pairs=52652, num_threads=1
C  0.0000000000  -0.6675348879  2.2285422075
C  0.0000000000  0.6675348879  2.2285422075
H  0.0000000000  -1.2315466525  3.1527358003
H  0.0000000000  -1.2321362953  1.3047548829
H  0.0000000000  1.2315466525  3.1527358003
H  0.0000000000  1.2321362953  1.3047548829
Ar  0.0000000000  0.0000000000  -1.5632139170