6
charge=0, multiplicity=1, basis=def2-QZVPPD, comment=['step_size = 0.001'], AUX_BASIS_CORR=rimp2-def2-QZVPPD, SCF_ALGORITHM=GDM, xc_grid=000099000590, mem_total=3750, num_basis=327, num_pairs=50678, num_threads=1
H  0.0000000000  -0.7604300102  -2.5307186795
O  0.0000000000  0.0000000000  -1.9463956754
H  0.0000000000  0.7604300102  -2.5307186795
O  0.0000000000  -1.1630284363  0.8288928466
C  0.0000000000  0.0000000000  0.8097779585
O  0.0000000000  1.1630284363  0.8288928466