5
charge=0, multiplicity=1, basis=def2-QZVPPD, comment=['step_size = 0.001'], AUX_BASIS_CORR=rimp2-def2-QZVPPD, SCF_ALGORITHM=GDM, xc_grid=000099000590, mem_total=3750, num_basis=241, num_pairs=27103, num_threads=1
N  0.0655706564  -2.4982117471  0.0000000000
H  -0.3755034702  -2.0827303538  0.8110892631
H  -0.3755034702  -2.0827303538  -0.8110892631
H  -0.1943361101  -3.4780429183  0.0000000000
Ar  0.0008645513  1.0681534568  0.0000000000