10
charge=0, multiplicity=1, basis=def2-QZVPPD, comment=['step_size = 0.001'], AUX_BASIS_CORR=rimp2-def2-QZVPPD, SCF_ALGORITHM=GDM, xc_grid=000099000590, mem_total=3750, num_basis=390, num_pairs=69840, num_threads=1
C  1.8244592493  -0.0000000723  -0.0000000453
H  1.4598670515  0.8865333520  0.5153784840
H  1.4598214696  0.0030553447  -1.0254333279
H  1.4598668585  -0.8895882943  0.5100873248
H  2.9127562819  0.0000004582  -0.0000319779
C  -1.8244592493  0.0000000723  0.0000000453
H  -2.9127562819  -0.0000004582  0.0000319779
H  -1.4598214696  -0.0030553447  1.0254333279
H  -1.4598670515  -0.8865333520  -0.5153784840
H  -1.4598668585  0.8895882943  -0.5100873248