4
charge=0, multiplicity=1, basis=def2-QZVPPD, comment=['step_size = 0.001'], AUX_BASIS_CORR=rimp2-def2-QZVPPD, SCF_ALGORITHM=GDM, xc_grid=000099000590, mem_total=3750, num_basis=252, num_pairs=27854, num_threads=1
N  -1.6201818481  0.4787264676  0.0000000000
N  -2.3697394900  -0.3273653554  0.0000000000
N  2.3697394900  0.3273653554  0.0000000000
N  1.6201818481  -0.4787264676  0.0000000000