7
charge=0, multiplicity=1, basis=def2-QZVPPD, comment=['step_size = 0.001'], AUX_BASIS_CORR=rimp2-def2-QZVPPD, SCF_ALGORITHM=GDM, xc_grid=000099000590, mem_total=3750, num_basis=294, num_pairs=41556, num_threads=1
F  -0.0000007000  -1.4638411231  0.0000000000
H  0.0000204001  -0.5439376384  0.0000000000
C  -0.0000006137  1.7667782028  0.0000000000
H  0.5159281974  1.4159092546  0.8936116281
H  0.5159281974  1.4159092546  -0.8936116281
H  -1.0318503086  1.4158962325  0.0000000000
H  -0.0000060815  2.8542118315  0.0000000000