8
charge=0, multiplicity=1, basis=def2-QZVPPD, comment=['step_size = 0.001'], AUX_BASIS_CORR=rimp2-def2-QZVPPD, SCF_ALGORITHM=GDM, xc_grid=000099000590, mem_total=3750, num_basis=327, num_pairs=49748, num_threads=1
O  -1.6538510456  0.0622773435  0.0000000000
H  -2.0725205537  -0.8003343011  0.0000000000
H  -0.7133136152  -0.1276520547  0.0000000000
C  1.8240297236  -0.0039636995  0.0000000000
H  1.4085340964  0.4648748642  0.8913360204
H  1.4085340964  0.4648748642  -0.8913360204
H  2.9043565295  0.1248935986  0.0000000000
H  1.5938161909  -1.0678484791  0.0000000000