6
charge=0, multiplicity=1, basis=def2-QZVPPD, comment=['step_size = 0.001'], AUX_BASIS_CORR=rimp2-def2-QZVPPD, SCF_ALGORITHM=GDM, xc_grid=000099000590, mem_total=3750, num_basis=264, num_pairs=33337, num_threads=1
H  0.8151600515  1.8637404622  0.0000000000
O  -0.0670828001  1.4900812806  0.0000000000
H  0.0713543558  0.5348159949  0.0000000000
H  -0.4123208371  -1.7606342773  0.7595785782
O  0.0631842581  -1.4193402093  0.0000000000
H  -0.4123208371  -1.7606342773  -0.7595785782