6
charge=0, multiplicity=1, basis=def2-QZVPPD, comment=['step_size = 0.003'], AUX_BASIS_CORR=rimp2-def2-QZVPPD, SCF_ALGORITHM=GDM, xc_grid=000099000590, mem_total=3750, num_basis=264, num_pairs=33347, num_threads=1
H  0.8153773961  1.8627539371  0.0000000000
O  -0.0670561412  1.4897043065  0.0000000000
H  0.0707601166  0.5344379030  0.0000000000
H  -0.4120548040  -1.7612297927  0.7601588881
O  0.0631478220  -1.4188022061  0.0000000000
H  -0.4120548040  -1.7612297927  -0.7601588881