4
charge=0, multiplicity=1, basis=def2-QZVPPD, comment=['step_size = 0.003'], AUX_BASIS_CORR=rimp2-def2-QZVPPD, SCF_ALGORITHM=GDM, xc_grid=000099000590, mem_total=3750, num_basis=225, num_pairs=23684, num_threads=1
F  0.0000000000  0.0000000000  -2.0877451055
H  0.0000000000  0.0000000000  -1.1670702233
N  0.0000000000  0.0000000000  0.9085072384
N  0.0000000000  0.0000000000  2.0079970935