8
charge=0, multiplicity=1, basis=def2-QZVPPD, comment=['step_size = 0.003'], AUX_BASIS_CORR=rimp2-def2-QZVPPD, SCF_ALGORITHM=GDM, xc_grid=000099000590, mem_total=3750, num_basis=324, num_pairs=48273, num_threads=1
N  -0.0593189913  1.6410964661  0.0000000000
H  0.3233390985  2.1132442111  -0.8102725491
H  0.3233390985  2.1132442111  0.8102725491
H  0.3191527310  0.6982053331  0.0000000000
N  0.0345438748  -1.5884436567  0.0000000000
H  -0.9350342780  -1.2925619721  0.0000000000
H  0.1567187512  -2.1818541928  -0.8117475064
H  0.1567187512  -2.1818541928  0.8117475064