5
charge=0, multiplicity=1, basis=def2-QZVPPD, comment=['step_size = {step_size}'], AUX_BASIS_CORR=rimp2-def2-QZVPPD, SCF_ALGORITHM=GDM, xc_grid=000099000590, mem_total=3750, num_basis=258, num_pairs=30908, num_threads=1
F  0.0000000000  0.0000000000  -1.9575818500
H  0.0000000000  0.0000000000  -1.0282360300
N  0.0000000000  0.0000000000  0.8200351300
C  0.0000000000  0.0000000000  1.9732845300
H  0.0000000000  0.0000000000  3.0409886300