10
charge=0, multiplicity=1, basis=def2-QZVPPD, comment=['step_size = 0.001'], AUX_BASIS_CORR=rimp2-def2-QZVPPD, SCF_ALGORITHM=GDM, xc_grid=000099000590, mem_total=3750, num_basis=390, num_pairs=69840, num_threads=1
C  1.8243156537  -0.0000000015  -0.0000000631
H  1.4602624300  0.8864931990  0.5153553132
H  1.4602170857  0.0030548572  -1.0253866607
H  1.4602624682  -0.8895481480  0.5100640745
H  2.9132767599  0.0000001098  -0.0000320126
C  -1.8243156537  0.0000000015  0.0000000631
H  -2.9132767599  -0.0000001098  0.0000320126
H  -1.4602170857  -0.0030548572  1.0253866607
H  -1.4602624300  -0.8864931990  -0.5153553132
H  -1.4602624682  0.8895481480  -0.5100640745