8
charge=0, multiplicity=1, basis=def2-QZVPPD, comment=['step_size = 0.001'], AUX_BASIS_CORR=rimp2-def2-QZVPPD, SCF_ALGORITHM=GDM, xc_grid=000099000590, mem_total=3750, num_basis=324, num_pairs=48273, num_threads=1
N  -0.0593149868  1.6405600242  0.0000000000
H  0.3236692382  2.1128823828  -0.8106728770
H  0.3236692382  2.1128823828  0.8106728770
H  0.3185970787  0.6982283597  0.0000000000
N  0.0344951007  -1.5879293387  0.0000000000
H  -0.9352893826  -1.2927443647  0.0000000000
H  0.1571050132  -2.1812589828  -0.8117618119
H  0.1571050132  -2.1812589828  0.8117618119