8
charge=0, multiplicity=1, basis=def2-QZVPPD, comment=['step_size = 0.01'], AUX_BASIS_CORR=rimp2-def2-QZVPPD, SCF_ALGORITHM=GDM, xc_grid=000099000590, mem_total=3750, num_basis=327, num_pairs=49748, num_threads=1
O  -1.6524633753  0.0623672794  0.0000000000
H  -2.0754516757  -0.7981463769  0.0000000000
H  -0.7128680958  -0.1321999567  0.0000000000
C  1.8228019215  -0.0038189517  0.0000000000
H  1.4065923752  0.4640598139  0.8910167237
H  1.4065923752  0.4640598139  -0.8910167237
H  2.9027843396  0.1268754958  0.0000000000
H  1.5943533215  -1.0689911281  0.0000000000