7
charge=0, multiplicity=1, basis=def2-QZVPPD, comment=['step_size = 0.001'], AUX_BASIS_CORR=rimp2-def2-QZVPPD, SCF_ALGORITHM=GDM, xc_grid=000099000590, mem_total=3750, num_basis=321, num_pairs=47459, num_threads=1
C  0.0001337910  2.2782987078  0.0000000000
H  0.0474562745  3.3654235867  0.0000000000
H  0.4959686187  1.8925767759  0.8888452942
H  -1.0409420903  1.9607058132  0.0000000000
H  0.4959686187  1.8925767759  -0.8888452942
N  -0.0000015946  -1.3040766462  0.5502491909
N  -0.0000015946  -1.3040766462  -0.5502491909