8
charge=0, multiplicity=1, basis=def2-QZVPPD, comment=['step_size = 0.003'], AUX_BASIS_CORR=rimp2-def2-QZVPPD, SCF_ALGORITHM=GDM, xc_grid=000099000590, mem_total=3750, num_basis=384, num_pairs=64034, num_threads=1
H  0.0000000000  1.6677036067  2.1851644973
C  0.0000000000  0.6035916620  2.1827025084
C  0.0000000000  -0.6036005980  2.1826820316
H  0.0000000000  -1.6677118133  2.1853598027
H  0.0000000000  0.0023064450  -0.5131815300
C  0.0000000000  -0.0002117133  -1.5792050800
C  0.0000000000  -0.0001153011  -2.7867665500
H  0.0000000000  0.0017018719  -3.8503522700