7
charge=0, multiplicity=1, basis=def2-QZVPPD, comment=['step_size = 0.003'], AUX_BASIS_CORR=rimp2-def2-QZVPPD, SCF_ALGORITHM=GDM, xc_grid=000099000590, mem_total=3750, num_basis=294, num_pairs=41556, num_threads=1
F  -0.0000864632  -1.4638424721  0.0000000000
H  0.0000277491  -0.5439341544  0.0000000000
C  0.0001088878  1.7666638977  0.0000000000
H  0.5167173770  1.4172346216  0.8937631059
H  0.5167173770  1.4172346216  -0.8937631059
H  -1.0313767943  1.4147132182  0.0000000000
H  -0.0017524043  2.8541270680  -0.0000000000