8
charge=0, multiplicity=1, basis=def2-QZVPPD, comment=['step_size = 0.001'], AUX_BASIS_CORR=rimp2-def2-QZVPPD, SCF_ALGORITHM=GDM, xc_grid=000099000590, mem_total=3750, num_basis=324, num_pairs=48322, num_threads=1
N  -0.0593083000  1.6406350200  0.0000754584
H  0.3237457351  2.1129938026  -0.8108068720
H  0.3232499049  2.1123406174  0.8097339480
H  0.3188471400  0.6976159400  0.0000247385
N  0.0344957700  -1.5879305200  -0.0000020284
H  -0.9352932700  -1.2927435300  -0.0000003347
H  0.1570996809  -2.1812406237  -0.8117342209
H  0.1571047991  -2.1812610163  0.8117624791