6
charge=0, multiplicity=1, basis=def2-QZVPPD, comment=['step_size = 0.001'], AUX_BASIS_CORR=rimp2-def2-QZVPPD, SCF_ALGORITHM=GDM, xc_grid=000099000590, mem_total=3750, num_basis=264, num_pairs=33337, num_threads=1
H  0.8153975163  1.8638735391  0.0000000000
O  -0.0671033825  1.4901247763  0.0000000000
H  0.0714450410  0.5339951055  0.0000000000
H  -0.4126656535  -1.7608849304  0.7602041081
O  0.0632276172  -1.4193087797  0.0000000000
H  -0.4126656535  -1.7608849304  -0.7602041081