5
charge=0, multiplicity=1, basis=def2-QZVPPD, comment=['step_size = 0.001'], AUX_BASIS_CORR=rimp2-def2-QZVPPD, SCF_ALGORITHM=GDM, xc_grid=000099000590, mem_total=3750, num_basis=231, num_pairs=26194, num_threads=1
F  -0.0073328561  1.2995328848  0.0000000000
H  0.0408468081  0.3659121225  0.0000000000
O  0.0531048863  -1.3468616169  0.0000000000
H  -0.3727144816  -1.7437990601  0.7633089727
H  -0.3727144816  -1.7437990601  -0.7633089727