4
charge=0, multiplicity=1, basis=def2-QZVPPD, comment=['step_size = 0.003'], AUX_BASIS_CORR=rimp2-def2-QZVPPD, SCF_ALGORITHM=GDM, xc_grid=000099000590, mem_total=3750, num_basis=198, num_pairs=19055, num_threads=1
F  1.3996639813  -0.0097153415  0.0000000000
H  0.4853198011  0.1190907010  0.0000000000
F  -1.3359224397  0.0461008479  0.0000000000
H  -1.6869049140  -0.8049900175  0.0000000000