8
charge=0, multiplicity=1, basis=def2-QZVPPD, comment=['step_size = 0.001'], AUX_BASIS_CORR=rimp2-def2-QZVPPD, SCF_ALGORITHM=GDM, xc_grid=000099000590, mem_total=3750, num_basis=324, num_pairs=48273, num_threads=1
N  -0.0593452081  1.6406494322  0.0000000000
H  0.3236428443  2.1128993860  -0.8106712105
H  0.3236428443  2.1128993860  0.8106712105
H  0.3190686514  0.6969518870  0.0000000000
N  0.0344987233  -1.5879281085  0.0000000000
H  -0.9353502137  -1.2927202502  0.0000000000
H  0.1571108212  -2.1812794865  -0.8117899089
H  0.1571108212  -2.1812794865  0.8117899089