6
charge=0, multiplicity=1, basis=def2-QZVPPD, comment=['step_size = 0.01'], AUX_BASIS_CORR=rimp2-def2-QZVPPD, SCF_ALGORITHM=GDM, xc_grid=000099000590, mem_total=3750, num_basis=390, num_pairs=68687, num_threads=1
C  1.7275454528  0.2784478125  0.0000000000
O  0.9769089706  1.1690365926  0.0000000000
O  2.4805418141  -0.6059935792  0.0000000000
C  -1.7275454528  -0.2784478125  0.0000000000
O  -0.9769089706  -1.1690365926  0.0000000000
O  -2.4805418141  0.6059935792  0.0000000000