7
charge=0, multiplicity=1, basis=def2-QZVPPD, comment=['step_size = 0.001'], AUX_BASIS_CORR=rimp2-def2-QZVPPD, SCF_ALGORITHM=GDM, xc_grid=000099000590, mem_total=3750, num_basis=321, num_pairs=47459, num_threads=1
C  -0.0000246519  2.2782099888  0.0000000000
H  0.0477557925  3.3653574143  0.0000000000
H  0.4964692800  1.8928775212  0.8891633856
H  -1.0403563320  1.9612254819  0.0000000000
H  0.4964692800  1.8928775212  -0.8891633856
N  -0.0000015963  -1.3040765967  0.5502491061
N  -0.0000015963  -1.3040765967  -0.5502491061