8
charge=0, multiplicity=1, basis=def2-QZVPPD, comment=['step_size = 0.001'], AUX_BASIS_CORR=rimp2-def2-QZVPPD, SCF_ALGORITHM=GDM, xc_grid=000099000590, mem_total=3750, num_basis=324, num_pairs=48371, num_threads=1
N  -0.0592318353  1.6406400029  0.0000000000
H  0.3231546288  2.1127154059  -0.8103973413
H  0.3231546288  2.1127154059  0.8103973413
H  0.3184216404  0.6974528441  0.0000000000
N  0.0344572977  -1.5879868190  0.0000000000
H  -0.9351742909  -1.2923830592  0.0000000000
H  0.1573347518  -2.1810412016  -0.8118620827
H  0.1573347518  -2.1810412016  0.8118620827