6
charge=0, multiplicity=1, basis=def2-QZVPPD, comment=['step_size = 0.003'], AUX_BASIS_CORR=rimp2-def2-QZVPPD, SCF_ALGORITHM=GDM, xc_grid=000099000590, mem_total=3750, num_basis=264, num_pairs=33337, num_threads=1
H  0.8158245143  1.8620483310  0.0000000000
O  -0.0671167411  1.4901784886  0.0000000000
H  0.0696786441  0.5347559575  0.0000000000
H  -0.4131795561  -1.7600036570  0.7601376585
O  0.0633901312  -1.4194064844  0.0000000000
H  -0.4131795561  -1.7600036570  -0.7601376585