7
charge=0, multiplicity=1, basis=def2-QZVPPD, comment=['step_size = 0.001'], AUX_BASIS_CORR=rimp2-def2-QZVPPD, SCF_ALGORITHM=GDM, xc_grid=000099000590, mem_total=3750, num_basis=337, num_pairs=52652, num_threads=1
C  0.0000000000  -0.6674652475  2.2285422983
C  0.0000000000  0.6674652475  2.2285422983
H  0.0000000000  -1.2321103419  3.1523496653
H  0.0000000000  -1.2327003183  1.3051415636
H  0.0000000000  1.2321103419  3.1523496653
H  0.0000000000  1.2327003183  1.3051415636
Ar  0.0000000000  0.0000000000  -1.5632139991