6
charge=0, multiplicity=1, basis=def2-QZVPPD, comment=['step_size = 0.001'], AUX_BASIS_CORR=rimp2-def2-QZVPPD, SCF_ALGORITHM=GDM, xc_grid=000099000590, mem_total=3750, num_basis=261, num_pairs=33434, num_threads=1
F  0.0000000000  1.2729038716  0.0000000000
H  0.0000002098  0.3245927260  0.0000000000
N  0.0000000200  -1.3728669221  0.0000000000
H  0.9405415333  -1.7482922732  0.0000000000
H  -0.4702710466  -1.7482915033  0.8145330344
H  -0.4702710466  -1.7482915033  -0.8145330344