9
charge=0, multiplicity=1, basis=def2-QZVPPD, comment=['step_size = 0.001'], AUX_BASIS_CORR=rimp2-def2-QZVPPD, SCF_ALGORITHM=GDM, xc_grid=000099000590, mem_total=3750, num_basis=393, num_pairs=70355, num_threads=1
O  -0.7745249846  0.6531226214  0.0000000000
H  0.1411553030  0.3490832489  0.0000000000
C  -1.6136423794  -0.4879541349  0.0000000000
H  -2.6432137943  -0.1332530069  0.0000000000
H  -1.4623882057  -1.1085033967  -0.8889526233
H  -1.4623882057  -1.1085033967  0.8889526233
O  2.0133143177  -0.1810135859  0.0000000000
H  2.4898562876  0.1592249379  -0.7604466822
H  2.4898562876  0.1592249379  0.7604466822