10
charge=0, multiplicity=1, basis=def2-QZVPPD, comment=['step_size = 0.01'], AUX_BASIS_CORR=rimp2-def2-QZVPPD, SCF_ALGORITHM=GDM, xc_grid=000099000590, mem_total=3750, num_basis=390, num_pairs=69840, num_threads=1
C  1.8243773539  -0.0002628015  -0.0003258706
H  1.4565168854  0.8855036110  0.5140416733
H  1.4632347691  0.0019281839  -1.0269961355
H  1.4608314682  -0.8908537435  0.5087432648
H  2.9126974981  0.0023626049  0.0028982210
C  -1.8243773539  0.0002628015  0.0003258706
H  -2.9126974981  -0.0023626049  -0.0028982210
H  -1.4632347691  -0.0019281839  1.0269961355
H  -1.4565168854  -0.8855036110  -0.5140416733
H  -1.4608314682  0.8908537435  -0.5087432648