8
charge=0, multiplicity=1, basis=def2-QZVPPD, comment=['step_size = 0.001'], AUX_BASIS_CORR=rimp2-def2-QZVPPD, SCF_ALGORITHM=GDM, xc_grid=000099000590, mem_total=3750, num_basis=327, num_pairs=49748, num_threads=1
O  -1.6538506036  0.0622768658  0.0000000000
H  -2.0725222148  -0.8003329059  0.0000000000
H  -0.7133132532  -0.1276458623  0.0000000000
C  1.8240998767  -0.0039672545  0.0000000000
H  1.4084796033  0.4650206959  0.8907343894
H  1.4084796033  0.4650206959  -0.8907343894
H  2.9042276599  0.1253779359  0.0000000000
H  1.5932130296  -1.0685821589  0.0000000000