6
charge=0, multiplicity=1, basis=def2-QZVPPD, comment=['step_size = 0.001'], AUX_BASIS_CORR=rimp2-def2-QZVPPD, SCF_ALGORITHM=GDM, xc_grid=000099000590, mem_total=3750, num_basis=274, num_pairs=35091, num_threads=1
C  -0.0000000007  2.6307432901  0.0000000000
H  -0.5128278777  2.2667397154  0.8882407454
H  -0.5128278777  2.2667397154  -0.8882407454
H  0.0000056266  3.7189682368  0.0000000000
H  1.0256501669  2.2667318002  0.0000000000
Ar  0.0000000000  -1.0552526687  0.0000000000