5
charge=0, multiplicity=1, basis=def2-QZVPPD, comment=['step_size = 0.001'], AUX_BASIS_CORR=rimp2-def2-QZVPPD, SCF_ALGORITHM=GDM, xc_grid=000099000590, mem_total=3750, num_basis=271, num_pairs=33513, num_threads=1
C  -2.1000925203  -0.5754909356  0.0000000000
C  -2.7327111121  0.4520935764  0.0000000000
H  -1.5418308030  -1.4817187030  0.0000000000
H  -3.2904569843  1.3586139543  0.0000000000
Ar  1.5730729379  0.0401586685  0.0000000000