6
charge=0, multiplicity=1, basis=def2-QZVPPD, comment=['step_size = 0.001'], AUX_BASIS_CORR=rimp2-def2-QZVPPD, SCF_ALGORITHM=GDM, xc_grid=000099000590, mem_total=3750, num_basis=291, num_pairs=41160, num_threads=1
F  -0.0000000100  1.7595635600  0.0000000000
H  0.0000003396  0.8351292134  0.0000000000
C  0.0000000500  -1.3168688507  -0.6039943953
C  0.0000000500  -1.3168688507  0.6039943953
H  -0.0000006300  -1.3225062378  1.6688144450
H  -0.0000006300  -1.3225062378  -1.6688144450