5
charge=0, multiplicity=1, basis=def2-QZVPPD, comment=['step_size = 0.01'], AUX_BASIS_CORR=rimp2-def2-QZVPPD, SCF_ALGORITHM=GDM, xc_grid=000099000590, mem_total=3750, num_basis=271, num_pairs=33512, num_threads=1
C  -2.1020526073  -0.5762882999  0.0000000000
C  -2.7332004091  0.4524094623  0.0000000000
H  -1.5455380135  -1.4827445193  0.0000000000
H  -3.2891908980  1.3591600583  0.0000000000
Ar  1.5738699902  0.0403153880  0.0000000000