6
charge=0, multiplicity=1, basis=def2-QZVPPD, comment=['step_size = 0.003'], AUX_BASIS_CORR=rimp2-def2-QZVPPD, SCF_ALGORITHM=GDM, xc_grid=000099000590, mem_total=3750, num_basis=291, num_pairs=41160, num_threads=1
F  -0.0000000100  1.7596239648  0.0000000000
H  0.0000003398  0.8341677290  0.0000000000
C  0.0000000499  -1.3170461448  -0.6039955877
C  0.0000000499  -1.3170461448  0.6039955877
H  -0.0000006291  -1.3204838275  1.6688259046
H  -0.0000006291  -1.3204838275  -1.6688259046