5
charge=0, multiplicity=1, basis=def2-QZVPPD, comment=['step_size = 0.001'], AUX_BASIS_CORR=rimp2-def2-QZVPPD, SCF_ALGORITHM=GDM, xc_grid=000099000590, mem_total=3750, num_basis=231, num_pairs=26194, num_threads=1
F  -0.0073295554  1.2994689151  0.0000000000
H  0.0407831571  0.3670978797  0.0000000000
O  0.0531296977  -1.3468377044  0.0000000000
H  -0.3729106534  -1.7439787505  0.7637192563
H  -0.3729106534  -1.7439787505  -0.7637192563