9
charge=0, multiplicity=1, basis=def2-QZVPPD, comment=['step_size = 0.003'], AUX_BASIS_CORR=rimp2-def2-QZVPPD, SCF_ALGORITHM=GDM, xc_grid=000099000590, mem_total=3750, num_basis=393, num_pairs=70355, num_threads=1
O  -0.7744672300  0.6531056000  -0.0001052992
H  0.1402446500  0.3493741000  0.0027695009
C  -1.6136411200  -0.4879550600  -0.0000046584
H  -2.6432310200  -0.1332504000  0.0001796592
H  -1.4625020591  -1.1084964957  -0.8889957134
H  -1.4622783409  -1.1085225443  0.8889168466
O  2.0133203300  -0.1810094600  -0.0000956957
H  2.4904071502  0.1589788054  -0.7601789553
H  2.4892102698  0.1594055346  0.7605540647