8
charge=0, multiplicity=1, basis=def2-QZVPPD, comment=['step_size = 0.003'], AUX_BASIS_CORR=rimp2-def2-QZVPPD, SCF_ALGORITHM=GDM, xc_grid=000099000590, mem_total=3750, num_basis=324, num_pairs=48273, num_threads=1
N  -0.0591824224  1.6405256070  0.0000000000
H  0.3225530863  2.1133655610  -0.8102935066
H  0.3225530863  2.1133655610  0.8102935066
H  0.3205783585  0.6981616049  0.0000000000
N  0.0343318965  -1.5879101141  0.0000000000
H  -0.9357767560  -1.2938052109  0.0000000000
H  0.1576870714  -2.1810728146  -0.8117476803
H  0.1576870714  -2.1810728146  0.8117476803