5
charge=0, multiplicity=1, basis=def2-QZVPPD, comment=['step_size = {step_size}'], AUX_BASIS_CORR=rimp2-def2-QZVPPD, SCF_ALGORITHM=GDM, xc_grid=000099000590, mem_total=3750, num_basis=231, num_pairs=26194, num_threads=1
F  -0.0073302000  1.2994823700  0.0000000000
H  0.0407933900  0.3668474100  0.0000000000
O  0.0530957100  -1.3468700500  0.0000000000
H  -0.3726399900  -1.7437236600  0.7631650100
H  -0.3726399900  -1.7437236600  -0.7631650100