6
charge=0, multiplicity=1, basis=def2-QZVPPD, comment=['step_size = 0.003'], AUX_BASIS_CORR=rimp2-def2-QZVPPD, SCF_ALGORITHM=GDM, xc_grid=000099000590, mem_total=3750, num_basis=390, num_pairs=68687, num_threads=1
C  1.7289221778  0.2787152001  0.0000000000
O  0.9773909477  1.1685381559  0.0000000000
O  2.4817416495  -0.6058869621  0.0000000000
C  -1.7289221778  -0.2787152001  0.0000000000
O  -0.9773909477  -1.1685381559  0.0000000000
O  -2.4817416495  0.6058869621  0.0000000000