7
charge=0, multiplicity=1, basis=def2-QZVPPD, comment=['step_size = 0.001'], AUX_BASIS_CORR=rimp2-def2-QZVPPD, SCF_ALGORITHM=GDM, xc_grid=000099000590, mem_total=3750, num_basis=294, num_pairs=41178, num_threads=1
O  -1.4769583939  -0.0578983632  0.0000000000
H  -1.8502375711  0.8242580182  0.0000000000
H  -0.5158388130  0.0773581042  0.0000000000
N  1.4611558750  0.0141941030  0.0000000000
H  1.6534284466  -0.9798473467  0.0000000000
H  1.9256189791  0.3999512214  0.8137515524
H  1.9256189791  0.3999512214  -0.8137515524