8
charge=0, multiplicity=1, basis=def2-QZVPPD, comment=['step_size = 0.001'], AUX_BASIS_CORR=rimp2-def2-QZVPPD, SCF_ALGORITHM=GDM, xc_grid=000099000590, mem_total=3750, num_basis=384, num_pairs=64034, num_threads=1
H  0.0000000000  1.6680051822  2.1852633516
C  0.0000000000  0.6037756856  2.1826921605
C  0.0000000000  -0.6037756856  2.1826921605
H  0.0000000000  -1.6680051822  2.1852633516
H  0.0000000000  0.0000000000  -0.5132479050
C  0.0000000000  0.0000000000  -1.5792453693
C  0.0000000000  0.0000000000  -2.7867262643
H  0.0000000000  0.0000000000  -3.8502856467