8
charge=0, multiplicity=1, basis=def2-QZVPPD, comment=['step_size = 0.001'], AUX_BASIS_CORR=rimp2-def2-QZVPPD, SCF_ALGORITHM=GDM, xc_grid=000099000590, mem_total=3750, num_basis=324, num_pairs=48273, num_threads=1
N  -0.0593083000  1.6406350200  -0.0000055667
H  0.3234764072  2.1127007402  -0.8102639522
H  0.3235192328  2.1126336798  0.8102768678
H  0.3188471400  0.6976159400  0.0000686159
N  0.0344957700  -1.5879305200  0.0000641919
H  -0.9352932700  -1.2927435300  -0.0007364573
H  0.1566769635  -2.1811809479  -0.8118281666
H  0.1575275165  -2.1813206921  0.8116685334