7
charge=0, multiplicity=1, basis=def2-QZVPPD, comment=['step_size = 0.001'], AUX_BASIS_CORR=rimp2-def2-QZVPPD, SCF_ALGORITHM=GDM, xc_grid=000099000590, mem_total=3750, num_basis=321, num_pairs=47459, num_threads=1
C  0.0001537783  2.2781368807  0.0000000000
H  0.0473199795  3.3653128732  0.0000000000
H  0.4960403301  1.8932269681  0.8891454861
H  -1.0411872279  1.9614413102  0.0000000000
H  0.4960403301  1.8932269681  -0.8891454861
N  -0.0000015937  -1.3040765857  0.5502489967
N  -0.0000015937  -1.3040765857  -0.5502489967