7
charge=0, multiplicity=1, basis=def2-QZVPPD, comment=['step_size = 0.003'], AUX_BASIS_CORR=rimp2-def2-QZVPPD, SCF_ALGORITHM=GDM, xc_grid=000099000590, mem_total=3750, num_basis=294, num_pairs=41178, num_threads=1
O  -1.4770559902  -0.0579540781  0.0000000000
H  -1.8484411628  0.8250177141  0.0000000000
H  -0.5156915034  0.0757249867  0.0000000000
N  1.4611598474  0.0144490474  0.0000000000
H  1.6524905920  -0.9806373174  0.0000000000
H  1.9258629128  0.3994538919  0.8134288158
H  1.9258629128  0.3994538919  -0.8134288158