6
charge=0, multiplicity=1, basis=def2-QZVPPD, comment=['step_size = 0.001'], AUX_BASIS_CORR=rimp2-def2-QZVPPD, SCF_ALGORITHM=GDM, xc_grid=000099000590, mem_total=3750, num_basis=261, num_pairs=33434, num_threads=1
F  -0.0000000000  1.2729531668  0.0000000000
H  0.0000002101  0.3236497919  0.0000000000
N  0.0000000200  -1.3727516677  0.0000000000
H  0.9404508021  -1.7488215101  0.0000000000
H  -0.4702256814  -1.7488207404  0.8144544592
H  -0.4702256814  -1.7488207404  -0.8144544592