8
charge=0, multiplicity=1, basis=def2-QZVPPD, comment=['step_size = {step_size}'], AUX_BASIS_CORR=rimp2-def2-QZVPPD, SCF_ALGORITHM=GDM, xc_grid=000099000590, mem_total=3750, num_basis=384, num_pairs=64034, num_threads=1
H  0.0000000000  1.6677077100  2.1852621500
C  0.0000000000  0.6035961300  2.1826922700
C  0.0000000000  -0.6035961300  2.1826922700
H  0.0000000000  -1.6677077100  2.1852621500
H  0.0000000000  0.0000000000  -0.5131815300
C  0.0000000000  0.0000000000  -1.5792050800
C  0.0000000000  0.0000000000  -2.7867665500
H  0.0000000000  0.0000000000  -3.8503522700