7
charge=0, multiplicity=1, basis=def2-QZVPPD, comment=['step_size = 0.001'], AUX_BASIS_CORR=rimp2-def2-QZVPPD, SCF_ALGORITHM=GDM, xc_grid=000099000590, mem_total=3750, num_basis=337, num_pairs=52652, num_threads=1
C  0.0000000000  -0.6674062917  2.2285434457
C  0.0000000000  0.6673236283  2.2285410143
H  0.0000000000  -1.2314578490  3.1520844600
H  0.0000000000  -1.2320568718  1.3053929015
H  0.0000000000  1.2319584510  3.1529404200
H  0.0000000000  1.2325398682  1.3045643585
Ar  0.0000000000  0.0000000167  -1.5632139500