6
charge=0, multiplicity=1, basis=def2-QZVPPD, comment=['step_size = 0.01'], AUX_BASIS_CORR=rimp2-def2-QZVPPD, SCF_ALGORITHM=GDM, xc_grid=000099000590, mem_total=3750, num_basis=291, num_pairs=41160, num_threads=1
F  -0.0000000100  1.7596153300  0.0006441677
H  0.0000003400  0.8341588100  -0.0015064013
C  0.0000000494  -1.3183312358  -0.6044073806
C  0.0000000506  -1.3154069042  0.6035807994
H  -0.0000006283  -1.3183931676  1.6684135580
H  -0.0000006317  -1.3266195924  -1.6692080220