6
charge=0, multiplicity=1, basis=def2-QZVPPD, comment=['step_size = 0.003'], AUX_BASIS_CORR=rimp2-def2-QZVPPD, SCF_ALGORITHM=GDM, xc_grid=000099000590, mem_total=3750, num_basis=261, num_pairs=33434, num_threads=1
F  0.0001023953  1.2729567305  0.0000000000
H  -0.0009149694  0.3236431203  -0.0000000000
N  -0.0002068399  -1.3728612205  -0.0000000000
H  0.9412529125  -1.7463097999  0.0000000000
H  -0.4696971762  -1.7493457665  0.8146327157
H  -0.4696971762  -1.7493457665  -0.8146327157