4
charge=0, multiplicity=1, basis=def2-QZVPPD, comment=['step_size = 0.001'], AUX_BASIS_CORR=rimp2-def2-QZVPPD, SCF_ALGORITHM=GDM, xc_grid=000099000590, mem_total=3750, num_basis=211, num_pairs=20337, num_threads=1
H  3.0131581713  -0.7846020079  0.0000000000
O  2.5632754632  0.0630471062  0.0000000000
H  1.6316701363  -0.1616128105  0.0000000000
Ar  -1.1430886327  -0.0013716396  0.0000000000