7
charge=0, multiplicity=1, basis=def2-QZVPPD, comment=['step_size = 0.001'], AUX_BASIS_CORR=rimp2-def2-QZVPPD, SCF_ALGORITHM=GDM, xc_grid=000099000590, mem_total=3750, num_basis=294, num_pairs=41178, num_threads=1
O  -1.4769614248  -0.0578991919  0.0000000000
H  -1.8502326904  0.8242646257  0.0000000000
H  -0.5158199409  0.0773600857  0.0000000000
N  1.4612766363  0.0142483709  0.0000000000
H  1.6530477891  -0.9806994760  0.0000000000
H  1.9249825333  0.4000025585  0.8135873557
H  1.9249825333  0.4000025585  -0.8135873557