7
charge=0, multiplicity=1, basis=def2-QZVPPD, comment=['step_size = 0.003'], AUX_BASIS_CORR=rimp2-def2-QZVPPD, SCF_ALGORITHM=GDM, xc_grid=000099000590, mem_total=3750, num_basis=294, num_pairs=41556, num_threads=1
F  -0.0000007125  -1.4633950576  0.0000000000
H  0.0000204156  -0.5434870441  0.0000000000
C  -0.0000006151  1.7661033813  0.0000000000
H  0.5160274064  1.4158501226  0.8937831530
H  0.5160274064  1.4158501226  -0.8937831530
H  -1.0320483284  1.4158367030  0.0000000000
H  -0.0000062422  2.8535652854  0.0000000000