7
charge=0, multiplicity=1, basis=def2-QZVPPD, comment=['step_size = 0.001'], AUX_BASIS_CORR=rimp2-def2-QZVPPD, SCF_ALGORITHM=GDM, xc_grid=000099000590, mem_total=3750, num_basis=294, num_pairs=41178, num_threads=1
O  -1.4769954565  -0.0578477214  0.0000000000
H  -1.8498466596  0.8233996609  0.0000000000
H  -0.5156449155  0.0774149321  0.0000000000
N  1.4611713345  0.0142681953  0.0000000000
H  1.6535695977  -0.9806026667  0.0000000000
H  1.9254427047  0.3998130528  0.8134189869
H  1.9254427047  0.3998130528  -0.8134189869