10
charge=0, multiplicity=1, basis=def2-QZVPPD, comment=['step_size = 0.001'], AUX_BASIS_CORR=rimp2-def2-QZVPPD, SCF_ALGORITHM=GDM, xc_grid=000099000590, mem_total=3750, num_basis=390, num_pairs=69840, num_threads=1
C  1.8242958307  0.0000000723  -0.0000000347
H  1.4605524485  0.8867789880  0.5155216360
H  1.4605070904  0.0030554953  -1.0257176521
H  1.4605527015  -0.8898351057  0.5102283952
H  2.9126388981  -0.0000002382  -0.0000320021
C  -1.8242958307  -0.0000000723  0.0000000347
H  -2.9126388981  0.0000002382  0.0000320021
H  -1.4605070904  -0.0030554953  1.0257176521
H  -1.4605524485  -0.8867789880  -0.5155216360
H  -1.4605527015  0.8898351057  -0.5102283952