5
charge=0, multiplicity=1, basis=def2-QZVPPD, comment=['step_size = 0.001'], AUX_BASIS_CORR=rimp2-def2-QZVPPD, SCF_ALGORITHM=GDM, xc_grid=000099000590, mem_total=3750, num_basis=241, num_pairs=27103, num_threads=1
N  0.0655432790  -2.4982917732  0.0000000000
H  -0.3754603070  -2.0828324131  0.8109447381
H  -0.3754603070  -2.0828324131  -0.8109447381
H  -0.1940420973  -3.4767267501  0.0000000000
Ar  0.0008645526  1.0681534533  0.0000000000