6
charge=0, multiplicity=1, basis=def2-QZVPPD, comment=['step_size = 0.001'], AUX_BASIS_CORR=rimp2-def2-QZVPPD, SCF_ALGORITHM=GDM, xc_grid=000099000590, mem_total=3750, num_basis=390, num_pairs=68687, num_threads=1
C  1.7284134328  0.2785103504  0.0000000000
O  0.9775842421  1.1686191119  0.0000000000
O  2.4819296426  -0.6058094689  0.0000000000
C  -1.7286375872  -0.2782439896  0.0000000000
O  -0.9775017579  -1.1687177081  0.0000000000
O  -2.4818439574  0.6057082311  0.0000000000