5
charge=0, multiplicity=1, basis=def2-QZVPPD, comment=['step_size = 0.003'], AUX_BASIS_CORR=rimp2-def2-QZVPPD, SCF_ALGORITHM=GDM, xc_grid=000099000590, mem_total=3750, num_basis=231, num_pairs=26194, num_threads=1
F  -0.0072733218  1.2992210108  0.0000000000
H  0.0402289950  0.3665521673  0.0000000000
O  0.0529271557  -1.3464361010  0.0000000000
H  -0.3715563555  -1.7445561543  0.7631931767
H  -0.3715563555  -1.7445561543  -0.7631931767