8
charge=0, multiplicity=1, basis=def2-QZVPPD, comment=['step_size = 0.001'], AUX_BASIS_CORR=rimp2-def2-QZVPPD, SCF_ALGORITHM=GDM, xc_grid=000099000590, mem_total=3750, num_basis=327, num_pairs=49748, num_threads=1
O  -1.6538513607  0.0622772056  0.0000000000
H  -2.0725216242  -0.8003334300  0.0000000000
H  -0.7133090704  -0.1276492184  0.0000000000
C  1.8240340740  -0.0038742763  0.0000000000
H  1.4084833685  0.4649540247  0.8914488576
H  1.4084833685  0.4649540247  -0.8914488576
H  2.9046881490  0.1249548900  0.0000000000
H  1.5935357542  -1.0691343577  0.0000000000