5
charge=0, multiplicity=1, basis=def2-QZVPPD, comment=['step_size = 0.01'], AUX_BASIS_CORR=rimp2-def2-QZVPPD, SCF_ALGORITHM=GDM, xc_grid=000099000590, mem_total=3750, num_basis=241, num_pairs=27103, num_threads=1
N  0.0656205919  -2.5003705997  0.0000000000
H  -0.3751527698  -2.0841669818  0.8114144121
H  -0.3751527698  -2.0841669818  -0.8114144121
H  -0.1952209573  -3.4790750644  0.0000000000
Ar  0.0008516800  1.0690084241  0.0000000000