6
charge=0, multiplicity=1, basis=def2-QZVPPD, comment=['step_size = 0.003'], AUX_BASIS_CORR=rimp2-def2-QZVPPD, SCF_ALGORITHM=GDM, xc_grid=000099000590, mem_total=3750, num_basis=291, num_pairs=41160, num_threads=1
F  -0.0000000100  1.7596153300  0.0000000000
H  0.0000003400  0.8341588100  -0.0000000003
C  -0.0003826719  -1.3168690698  -0.6039940899
C  0.0003827719  -1.3168690702  0.6039940901
H  -0.0016501739  -1.3225063791  1.6688107889
H  0.0016489139  -1.3225063809  -1.6688107911