4
charge=0, multiplicity=1, basis=def2-QZVPPD, comment=['step_size = 0.003'], AUX_BASIS_CORR=rimp2-def2-QZVPPD, SCF_ALGORITHM=GDM, xc_grid=000099000590, mem_total=3750, num_basis=198, num_pairs=19055, num_threads=1
F  1.4000691119  -0.0097473929  0.0000000000
H  0.4860415138  0.1211968256  0.0000000000
F  -1.3362253099  0.0459753884  0.0000000000
H  -1.6895543263  -0.8041269214  0.0000000000