9
charge=0, multiplicity=1, basis=def2-QZVPPD, comment=['step_size = 0.001'], AUX_BASIS_CORR=rimp2-def2-QZVPPD, SCF_ALGORITHM=GDM, xc_grid=000099000590, mem_total=3750, num_basis=393, num_pairs=70355, num_threads=1
O  -0.7744589375  0.6531032497  0.0000000000
H  0.1401119864  0.3494138204  0.0000000000
C  -1.6136409819  -0.4879552943  0.0000000000
H  -2.6432327428  -0.1332500050  0.0000000000
H  -1.4623905223  -1.1085099949  -0.8889564429
H  -1.4623905223  -1.1085099949  0.8889564429
O  2.0132810748  -0.1810372780  0.0000000000
H  2.4901211031  0.1594133790  -0.7609331189
H  2.4901211031  0.1594133790  0.7609331189