9
charge=0, multiplicity=1, basis=def2-QZVPPD, comment=['step_size = 0.001'], AUX_BASIS_CORR=rimp2-def2-QZVPPD, SCF_ALGORITHM=GDM, xc_grid=000099000590, mem_total=3750, num_basis=393, num_pairs=70355, num_threads=1
O  -0.7744755225  0.6531079503  0.0000000000
H  0.1403773136  0.3493343796  0.0000000000
C  -1.6136412581  -0.4879548257  0.0000000000
H  -2.6432292972  -0.1332507950  0.0000000000
H  -1.4623898777  -1.1085090451  -0.8889561171
H  -1.4623898777  -1.1085090451  0.8889561171
O  2.0133595852  -0.1809816420  0.0000000000
H  2.4894963169  0.1589709610  -0.7597999011
H  2.4894963169  0.1589709610  0.7597999011