4
charge=0, multiplicity=1, basis=def2-QZVPPD, comment=['step_size = 0.001'], AUX_BASIS_CORR=rimp2-def2-QZVPPD, SCF_ALGORITHM=GDM, xc_grid=000099000590, mem_total=3750, num_basis=198, num_pairs=19055, num_threads=1
F  1.4000498640  -0.0096729326  0.0000000000
H  0.4866290579  0.1184654615  0.0000000000
F  -1.3363055831  0.0460612489  0.0000000000
H  -1.6882658083  -0.8044177481  0.0000000000