8
charge=0, multiplicity=1, basis=def2-QZVPPD, comment=['step_size = 0.001'], AUX_BASIS_CORR=rimp2-def2-QZVPPD, SCF_ALGORITHM=GDM, xc_grid=000099000590, mem_total=3750, num_basis=324, num_pairs=48273, num_threads=1
N  -0.0593847647  1.6406300371  0.0000000000
H  0.3238410112  2.1126190141  -0.8101434787
H  0.3238410112  2.1126190141  0.8101434787
H  0.3192726396  0.6977790359  0.0000000000
N  0.0345342423  -1.5878742210  0.0000000000
H  -0.9354122491  -1.2931040008  0.0000000000
H  0.1568697282  -2.1814604384  -0.8116346173
H  0.1568697282  -2.1814604384  0.8116346173