9
charge=0, multiplicity=1, basis=def2-QZVPPD, comment=['step_size = 0.001'], AUX_BASIS_CORR=rimp2-def2-QZVPPD, SCF_ALGORITHM=GDM, xc_grid=000099000590, mem_total=3750, num_basis=393, num_pairs=70355, num_threads=1
O  -0.7745035912  0.6531626638  0.0000000000
H  0.1399557632  0.3486352838  0.0000000000
C  -1.6135543171  -0.4880002280  0.0000000000
H  -2.6430547772  -0.1330388976  0.0000000000
H  -1.4625691738  -1.1084494695  -0.8890741834
H  -1.4625691738  -1.1084494695  0.8890741834
O  2.0133213025  -0.1810044317  0.0000000000
H  2.4898080541  0.1591719571  -0.7603753063
H  2.4898080541  0.1591719571  0.7603753063