4
charge=0, multiplicity=1, basis=def2-QZVPPD, comment=['step_size = 0.001'], AUX_BASIS_CORR=rimp2-def2-QZVPPD, SCF_ALGORITHM=GDM, xc_grid=000099000590, mem_total=3750, num_basis=198, num_pairs=19055, num_threads=1
F  1.4001501760  -0.0096871474  0.0000000000
H  0.4847400221  0.1187384585  0.0000000000
F  -1.3362981369  0.0460782311  0.0000000000
H  -1.6884081117  -0.8047429119  0.0000000000