8
charge=0, multiplicity=1, basis=def2-QZVPPD, comment=['step_size = 0.001'], AUX_BASIS_CORR=rimp2-def2-QZVPPD, SCF_ALGORITHM=GDM, xc_grid=000099000590, mem_total=3750, num_basis=327, num_pairs=49748, num_threads=1
O  -1.6538511144  0.0622768965  0.0000000000
H  -2.0725226263  -0.8003319789  0.0000000000
H  -0.7133117848  -0.1276440453  0.0000000000
C  1.8240305164  -0.0037884205  0.0000000000
H  1.4088156636  0.4645952358  0.8907313796
H  1.4088156636  0.4645952358  -0.8907313796
H  2.9041264105  0.1249077214  0.0000000000
H  1.5934750691  -1.0693936009  0.0000000000