8
charge=0, multiplicity=1, basis=def2-QZVPPD, comment=['step_size = 0.01'], AUX_BASIS_CORR=rimp2-def2-QZVPPD, SCF_ALGORITHM=GDM, xc_grid=000099000590, mem_total=3750, num_basis=327, num_pairs=49745, num_threads=1
O  -1.6546425921  0.0625162796  0.0000000000
H  -2.0742721368  -0.7996292676  0.0000000000
H  -0.7143110330  -0.1284504744  0.0000000000
C  1.8249934814  -0.0041211369  0.0000000000
H  1.4074930806  0.4625737358  0.8910478177
H  1.4074930806  0.4625737358  -0.8910478177
H  2.9046011587  0.1297310252  0.0000000000
H  1.5994897135  -1.0699077752  0.0000000000