5
charge=0, multiplicity=1, basis=def2-QZVPPD, comment=['step_size = 0.001'], AUX_BASIS_CORR=rimp2-def2-QZVPPD, SCF_ALGORITHM=GDM, xc_grid=000099000590, mem_total=3750, num_basis=271, num_pairs=33513, num_threads=1
C  -2.1000164357  -0.5756144922  0.0000000000
C  -2.7327276509  0.4521204419  0.0000000000
H  -1.5425188437  -1.4806020658  0.0000000000
H  -3.2904781930  1.3586484922  0.0000000000
Ar  1.5730729442  0.0401586713  0.0000000000