9
charge=0, multiplicity=1, basis=def2-QZVPPD, comment=['step_size = 0.001'], AUX_BASIS_CORR=rimp2-def2-QZVPPD, SCF_ALGORITHM=GDM, xc_grid=000099000590, mem_total=3750, num_basis=393, num_pairs=70355, num_threads=1
O  -0.7744672300  0.6531056000  -0.0000002996
H  0.1402446500  0.3493741000  -0.0000029892
C  -1.6136411200  -0.4879550600  0.0000892377
H  -2.6432310200  -0.1332504000  0.0000266776
H  -1.4622778684  -1.1088881051  -0.8894970225
H  -1.4625025316  -1.1081309349  0.8884155375
O  2.0133203300  -0.1810094600  -0.0000000169
H  2.4898089579  0.1591923914  -0.7603663696
H  2.4898084621  0.1591919486  0.7603666504