6
charge=0, multiplicity=1, basis=def2-QZVPPD, comment=['step_size = 0.001'], AUX_BASIS_CORR=rimp2-def2-QZVPPD, SCF_ALGORITHM=GDM, xc_grid=000099000590, mem_total=3750, num_basis=261, num_pairs=33434, num_threads=1
F  0.0000000000  1.2729567300  -0.0000006101
H  0.0000002100  0.3236431200  0.0000342727
N  0.0000000200  -1.3728612200  0.0000625149
H  0.9406449200  -1.7483342900  -0.0007341410
H  -0.4707012069  -1.7481110848  0.8145439530
H  -0.4699442731  -1.7485559551  -0.8147011870