5
charge=0, multiplicity=1, basis=def2-QZVPPD, comment=['step_size = 0.001'], AUX_BASIS_CORR=rimp2-def2-QZVPPD, SCF_ALGORITHM=GDM, xc_grid=000099000590, mem_total=3750, num_basis=231, num_pairs=26194, num_threads=1
F  -0.0073304446  1.2994804361  0.0000000000
H  0.0408152726  0.3668571320  0.0000000000
O  0.0531425702  -1.3468202336  0.0000000000
H  -0.3730204791  -1.7441056047  0.7627551033
H  -0.3730204791  -1.7441056047  -0.7627551033