7
charge=0, multiplicity=1, basis=def2-QZVPPD, comment=['step_size = 0.01'], AUX_BASIS_CORR=rimp2-def2-QZVPPD, SCF_ALGORITHM=GDM, xc_grid=000099000590, mem_total=3750, num_basis=321, num_pairs=47459, num_threads=1
C  0.0001343811  2.2762710626  0.0000000000
H  0.0464450362  3.3634657423  0.0000000000
H  0.4968762998  1.8917144058  0.8888434601
H  -1.0406200121  1.9577145932  0.0000000000
H  0.4968762998  1.8917144058  -0.8888434601
N  -0.0000423746  -1.3029676838  0.5502490214
N  -0.0000423746  -1.3029676838  -0.5502490214