6
charge=0, multiplicity=1, basis=def2-QZVPPD, comment=['step_size = 0.003'], AUX_BASIS_CORR=rimp2-def2-QZVPPD, SCF_ALGORITHM=GDM, xc_grid=000099000590, mem_total=3750, num_basis=291, num_pairs=41160, num_threads=1
F  -0.0000067557  1.7596153300  0.0000000000
H  0.0001928285  0.8341588101  0.0000000000
C  -0.0001725704  -1.3168690699  -0.6039940900
C  -0.0001725704  -1.3168690699  0.6039940900
H  0.0020220683  -1.3225063809  1.6688107912
H  0.0020220683  -1.3225063809  -1.6688107912