9
charge=0, multiplicity=1, basis=def2-QZVPPD, comment=['step_size = 0.001'], AUX_BASIS_CORR=rimp2-def2-QZVPPD, SCF_ALGORITHM=GDM, xc_grid=000099000590, mem_total=3750, num_basis=393, num_pairs=70355, num_threads=1
O  -0.7744672300  0.6531056000  -0.0000547409
H  0.1402446500  0.3493741000  0.0000002340
C  -1.6136411200  -0.4879550600  0.0001215257
H  -2.6432310200  -0.1332504000  -0.0002446337
H  -1.4620945269  -1.1080205632  -0.8891235850
H  -1.4626858731  -1.1089984768  0.8887889750
O  2.0133203300  -0.1810094600  0.0000000686
H  2.4898080059  0.1591926904  -0.7603666528
H  2.4898094141  0.1591916496  0.7603663672