9
charge=0, multiplicity=1, basis=def2-QZVPPD, comment=['step_size = 0.001'], AUX_BASIS_CORR=rimp2-def2-QZVPPD, SCF_ALGORITHM=GDM, xc_grid=000099000590, mem_total=3750, num_basis=393, num_pairs=70355, num_threads=1
O  -0.7744588916  0.6531185289  0.0000000000
H  0.1402522250  0.3493645508  0.0000000000
C  -1.6135676425  -0.4878825714  0.0000000000
H  -2.6433932388  -0.1338110360  0.0000000000
H  -1.4628224989  -1.1087558391  -0.8888429141
H  -1.4628224989  -1.1087558391  0.8888429141
O  2.0133213850  -0.1810098219  0.0000000000
H  2.4898063490  0.1591923038  -0.7603684781
H  2.4898063490  0.1591923038  0.7603684781