7
charge=0, multiplicity=1, basis=def2-QZVPPD, comment=['step_size = 0.001'], AUX_BASIS_CORR=rimp2-def2-QZVPPD, SCF_ALGORITHM=GDM, xc_grid=000099000590, mem_total=3750, num_basis=294, num_pairs=41556, num_threads=1
F  -0.0000007000  -1.4638427929  0.0000000000
H  0.0000204010  -0.5439295049  0.0000000000
C  -0.0000006205  1.7667507282  0.0000000000
H  0.5161333478  1.4163432941  0.8939668126
H  0.5161333478  1.4163432941  -0.8939668126
H  -1.0322606159  1.4163301783  0.0000000000
H  -0.0000059929  2.8532602866  0.0000000000