6
charge=0, multiplicity=1, basis=def2-QZVPPD, comment=['step_size = 0.001'], AUX_BASIS_CORR=rimp2-def2-QZVPPD, SCF_ALGORITHM=GDM, xc_grid=000099000590, mem_total=3750, num_basis=264, num_pairs=33337, num_threads=1
H  0.8151634940  1.8635848145  0.0000000000
O  -0.0670920744  1.4900852651  0.0000000000
H  0.0715009367  0.5349185778  0.0000000000
H  -0.4122090426  -1.7605476833  0.7605484404
O  0.0631699914  -1.4193517626  0.0000000000
H  -0.4122090426  -1.7605476833  -0.7605484404