6
charge=0, multiplicity=1, basis=def2-QZVPPD, comment=['step_size = 0.001'], AUX_BASIS_CORR=rimp2-def2-QZVPPD, SCF_ALGORITHM=GDM, xc_grid=000099000590, mem_total=3750, num_basis=291, num_pairs=41160, num_threads=1
F  -0.0000000100  1.7596150810  0.0000000000
H  0.0000003400  0.8341626786  0.0000000000
C  0.0000000500  -1.3168693443  -0.6040825722
C  0.0000000500  -1.3168693443  0.6040825722
H  -0.0000006296  -1.3225027013  1.6681760652
H  -0.0000006296  -1.3225027013  -1.6681760652