10
charge=0, multiplicity=1, basis=def2-QZVPPD, comment=['step_size = 0.001'], AUX_BASIS_CORR=rimp2-def2-QZVPPD, SCF_ALGORITHM=GDM, xc_grid=000099000590, mem_total=3750, num_basis=390, num_pairs=69840, num_threads=1
C  1.8243772307  0.0000000000  -0.0000000404
H  1.4600924554  0.8869423643  0.5156164368
H  1.4600469729  0.0030564059  -1.0259065191
H  1.4600924857  -0.8899988805  0.5103225282
H  2.9130526701  0.0000001100  -0.0000320006
C  -1.8243772307  -0.0000000000  0.0000000404
H  -2.9130526701  -0.0000001100  0.0000320006
H  -1.4600469729  -0.0030564059  1.0259065191
H  -1.4600924554  -0.8869423643  -0.5156164368
H  -1.4600924857  0.8899988805  -0.5103225282