7
charge=0, multiplicity=1, basis=def2-QZVPPD, comment=['step_size = 0.001'], AUX_BASIS_CORR=rimp2-def2-QZVPPD, SCF_ALGORITHM=GDM, xc_grid=000099000590, mem_total=3750, num_basis=294, num_pairs=41178, num_threads=1
O  -1.4769232635  -0.0579496986  0.0000000000
H  -1.8506310804  0.8251223791  0.0000000000
H  -0.5160010845  0.0773089479  0.0000000000
N  1.4611710055  0.0142683447  0.0000000000
H  1.6535685423  -0.9806053733  0.0000000000
H  1.9254429353  0.3998142272  0.8134207731
H  1.9254429353  0.3998142272  -0.8134207731