6
charge=0, multiplicity=1, basis=def2-QZVPPD, comment=['step_size = 0.001'], AUX_BASIS_CORR=rimp2-def2-QZVPPD, SCF_ALGORITHM=GDM, xc_grid=000099000590, mem_total=3750, num_basis=390, num_pairs=68687, num_threads=1
C  1.7286389369  0.2782449628  0.0000000000
O  0.9775013308  1.1687172589  0.0000000000
O  2.4818438273  -0.6057085987  0.0000000000
C  -1.7286389369  -0.2782449628  0.0000000000
O  -0.9775013308  -1.1687172589  0.0000000000
O  -2.4818438273  0.6057085987  0.0000000000