6
charge=0, multiplicity=1, basis=def2-QZVPPD, comment=['step_size = 0.003'], AUX_BASIS_CORR=rimp2-def2-QZVPPD, SCF_ALGORITHM=GDM, xc_grid=000099000590, mem_total=3750, num_basis=327, num_pairs=50678, num_threads=1
H  0.0000000000  -0.7610143634  -2.5294808487
O  0.0000000000  0.0003685822  -1.9463955600
H  0.0000000000  0.7598436966  -2.5319586513
O  0.0000000000  -1.1629604953  0.8291718972
C  0.0000000000  -0.0001029392  0.8097848000
O  0.0000000000  1.1627429047  0.8286086828