7
charge=0, multiplicity=1, basis=def2-QZVPPD, comment=['step_size = 0.001'], AUX_BASIS_CORR=rimp2-def2-QZVPPD, SCF_ALGORITHM=GDM, xc_grid=000099000590, mem_total=3750, num_basis=337, num_pairs=52652, num_threads=1
C  0.0000000000  -0.6673649272  2.2286657153
C  0.0000000000  0.6673649928  2.2284187447
H  0.0000000000  -1.2320877241  3.1523980093
H  0.0000000000  -1.2319185562  1.3048640628
H  0.0000000000  1.2313285759  3.1526268707
H  0.0000000000  1.2326781838  1.3050931972
Ar  0.0000000000  -0.0000000318  -1.5632139500