5
charge=0, multiplicity=1, basis=def2-QZVPPD, comment=['step_size = 0.01'], AUX_BASIS_CORR=rimp2-def2-QZVPPD, SCF_ALGORITHM=GDM, xc_grid=000099000590, mem_total=3750, num_basis=241, num_pairs=27103, num_threads=1
N  0.0658563806  -2.4984952546  0.0000000000
H  -0.3722485219  -2.0794562669  0.8114094506
H  -0.3722485219  -2.0794562669  -0.8114094506
H  -0.2012546264  -3.4755358900  0.0000000000
Ar  0.0007747367  1.0680244334  0.0000000000