9
charge=0, multiplicity=1, basis=def2-QZVPPD, comment=['step_size = 0.001'], AUX_BASIS_CORR=rimp2-def2-QZVPPD, SCF_ALGORITHM=GDM, xc_grid=000099000590, mem_total=3750, num_basis=393, num_pairs=70355, num_threads=1
O  -0.7744668198  0.6531401321  0.0000000000
H  0.1403874509  0.3498448490  0.0000000000
C  -1.6136093621  -0.4880578889  0.0000000000
H  -2.6429996464  -0.1327650046  0.0000000000
H  -1.4627561752  -1.1086340285  -0.8890043151
H  -1.4627561752  -1.1086340285  0.8890043151
O  2.0133195628  -0.1810132076  0.0000000000
H  2.4898013627  0.1592065033  -0.7603639464
H  2.4898013627  0.1592065033  0.7603639464