4
charge=0, multiplicity=1, basis=def2-QZVPPD, comment=['step_size = 0.001'], AUX_BASIS_CORR=rimp2-def2-QZVPPD, SCF_ALGORITHM=GDM, xc_grid=000099000590, mem_total=3750, num_basis=274, num_pairs=35215, num_threads=1
O  0.0000000000  -1.1632897548  1.6281844643
C  0.0000000000  0.0000000000  1.6282211888
O  0.0000000000  1.1632897548  1.6281844643
Ar  0.0000000000  0.0000000000  -1.7922854101