7
charge=0, multiplicity=1, basis=def2-QZVPPD, comment=['step_size = 0.003'], AUX_BASIS_CORR=rimp2-def2-QZVPPD, SCF_ALGORITHM=GDM, xc_grid=000099000590, mem_total=3750, num_basis=337, num_pairs=52652, num_threads=1
C  -0.0003694818  -0.6673649600  2.2285422300
C  0.0003694818  0.6673649600  2.2285422300
H  0.0011886341  -1.2317081500  3.1525124400
H  0.0011944572  -1.2322983700  1.3049786300
H  -0.0011886341  1.2317081500  3.1525124400
H  -0.0011944572  1.2322983700  1.3049786300
Ar  0.0000000000  0.0000000000  -1.5632139500