6
charge=0, multiplicity=1, basis=def2-QZVPPD, comment=['step_size = 0.001'], AUX_BASIS_CORR=rimp2-def2-QZVPPD, SCF_ALGORITHM=GDM, xc_grid=000099000590, mem_total=3750, num_basis=264, num_pairs=33337, num_threads=1
H  0.8150511660  1.8638417055  0.0000000000
O  -0.0670660656  1.4900703149  0.0000000000
H  0.0711977433  0.5348811022  0.0000000000
H  -0.4130560974  -1.7611723567  0.7597469796
O  0.0632769086  -1.4192719174  0.0000000000
H  -0.4130560974  -1.7611723567  -0.7597469796