7
charge=0, multiplicity=1, basis=def2-QZVPPD, comment=['step_size = 0.001'], AUX_BASIS_CORR=rimp2-def2-QZVPPD, SCF_ALGORITHM=GDM, xc_grid=000099000590, mem_total=3750, num_basis=337, num_pairs=52652, num_threads=1
C  0.0000000000  -0.6674172427  2.2285426660
C  0.0000000000  0.6674172427  2.2285426660
H  0.0000000000  -1.2314613555  3.1520959145
H  0.0000000000  -1.2320543630  1.3053904893
H  0.0000000000  1.2314613555  3.1520959145
H  0.0000000000  1.2320543630  1.3053904893
Ar  0.0000000000  0.0000000000  -1.5632139765