9
charge=0, multiplicity=1, basis=def2-QZVPPD, comment=['step_size = 0.01'], AUX_BASIS_CORR=rimp2-def2-QZVPPD, SCF_ALGORITHM=GDM, xc_grid=000099000590, mem_total=3750, num_basis=393, num_pairs=70355, num_threads=1
O  -0.7744672300  0.6531056000  -0.0005528878
H  0.1402446500  0.3493741000  -0.0022669034
C  -1.6136411200  -0.4879550600  0.0003769197
H  -2.6432310200  -0.1332504000  0.0048657446
H  -1.4656717727  -1.1068196833  -0.8903194422
H  -1.4591086273  -1.1101993567  0.8875931178
O  2.0133203300  -0.1810094600  -0.0000305689
H  2.4926020010  0.1608168540  -0.7579167864
H  2.4870154190  0.1575674860  0.7628162336