5
charge=0, multiplicity=1, basis=def2-QZVPPD, comment=['step_size = 0.001'], AUX_BASIS_CORR=rimp2-def2-QZVPPD, SCF_ALGORITHM=GDM, xc_grid=000099000590, mem_total=3750, num_basis=241, num_pairs=27103, num_threads=1
N  0.0654751782  -2.4983004774  0.0000000000
H  -0.3751923989  -2.0824280232  0.8115798990
H  -0.3751923989  -2.0824280232  -0.8115798990
H  -0.1936318822  -3.4774146700  0.0000000000
Ar  0.0008645573  1.0681534553  0.0000000000