7
charge=0, multiplicity=1, basis=def2-QZVPPD, comment=['step_size = 0.001'], AUX_BASIS_CORR=rimp2-def2-QZVPPD, SCF_ALGORITHM=GDM, xc_grid=000099000590, mem_total=3750, num_basis=321, num_pairs=47459, num_threads=1
C  0.0000628038  2.2782076702  0.0000000000
H  0.0482724746  3.3653194528  0.0000000000
H  0.4959899705  1.8932652295  0.8891312804
H  -1.0409554260  1.9605156574  0.0000000000
H  0.4959899705  1.8932652295  -0.8891312804
N  -0.0000016066  -1.3040765975  0.5502490581
N  -0.0000016066  -1.3040765975  -0.5502490581